<?xml version="1.0"?>
<VTKFile type="PolyData" version="0.1" byte_order="LittleEndian">
  <PolyData>
    <Piece NumberOfPoints="36" NumberOfVerts="0" NumberOfLines="0" NumberOfStrips="0" NumberOfPolys="54">
      <Points>
        <DataArray type="Float32" NumberOfComponents="3" format="ascii">
          -1.5 -1.5 0  -1 -1.5 0  -1 -1 0  -1.5 -1 0
          -1.5 -1.5 0.5  -1 -1.5 0.5  -1 -1 0.5  -1.5 -1 0.5
          -0.75 -1.5 0  -0.25 -1.5 0  -0.25 -1 0  -0.75 -1 0
          -0.75 -1.5 0.5  -0.25 -1.5 0.5  -0.25 -1 0.5  -0.75 -1 0.5
          0 -1.5 0  0.5 -1.5 0  0.5 -1 0  0 -1 0
          0 -1.5 0.5  0.5 -1.5 0.5  0.5 -1 0.5  0 -1 0.5
          -1.5 -0.75 0  -1 -0.75 0  -1 -0.25 0  -1.5 -0.25 0
          -1.5 -0.75 0.5  -1 -0.75 0.5  -1 -0.25 0.5  -1.5 -0.25 0.5
          -0.75 -0.75 0  -0.25 -0.75 0  -0.25 -0.25 0  -0.75 -0.25 0
          -0.75 -0.75 0.5  -0.25 -0.75 0.5  -0.25 -0.25 0.5  -0.75 -0.25 0.5
          0 -0.75 0  0.5 -0.75 0  0.5 -0.25 0  0 -0.25 0
          0 -0.75 0.5  0.5 -0.75 0.5  0.5 -0.25 0.5  0 -0.25 0.5
          -1.5 0 0  -1 0 0  -1 0.5 0  -1.5 0.5 0
          -1.5 0 0.5  -1 0 0.5  -1 0.5 0.5  -1.5 0.5 0.5
          -0.75 0 0  -0.25 0 0  -0.25 0.5 0  -0.75 0.5 0
          -0.75 0 0.5  -0.25 0 0.5  -0.25 0.5 0.5  -0.75 0.5 0.5
          0 0 0  0.5 0 0  0.5 0.5 0  0 0.5 0
          0 0 0.5  0.5 0 0.5  0.5 0.5 0.5  0 0.5 0.5
        </DataArray>
      </Points>
      <Polys>
        <DataArray type="Int32" Name="connectivity" format="ascii">
          0 1 2 3  4 5 6 7  0 1 5 4  1 2 6 5  2 3 7 6  3 0 4 7
          8 9 10 11  12 13 14 15  8 9 13 12  9 10 14 13  10 11 15 14  11 8 12 15
          16 17 18 19  20 21 22 23  16 17 21 20  17 18 22 21  18 19 23 22  19 16 20 23
          24 25 26 27  28 29 30 31  24 25 29 28  25 26 30 29  26 27 31 30  27 24 28 31
          32 33 34 35  36 37 38 39  32 33 37 36  33 34 38 37  34 35 39 38  35 32 36 39
          40 41 42 43  44 45 46 47  40 41 45 44  41 42 46 45  42 43 47 46  43 40 44 47
          48 49 50 51  52 53 54 55  48 49 53 52  49 50 54 53  50 51 55 54  51 48 52 55
          56 57 58 59  60 61 62 63  56 57 61 60  57 58 62 61  58 59 63 62  59 56 60 63
          64 65 66 67  68 69 70 71  64 65 69 68  65 66 70 69  66 67 71 70  67 64 68 71
        </DataArray>
        <DataArray type="Int32" Name="offsets" format="ascii">
          4 8 12 16 20 24 28 32 36 40 44 48
          52 56 60 64 68 72 76 80 84 88 92 96
          100 104 108 112 116 120 124 128 132 136 140 144
          148 152 156 160 164 168 172 176 180 184 188 192
          196 200 204 208 212 216
        </DataArray>
      </Polys>
      <CellData Scalars="MaterialIds">
        <DataArray type="Int32" Name="MaterialIds" format="ascii">
          10 10 10 10 10 10
          11 11 11 11 11 11
          12 12 12 12 12 12
          13 13 13 13 13 13
          14 14 14 14 14 14
          15 15 15 15 15 15
          16 16 16 16 16 16
          17 17 17 17 17 17
          18 18 18 18 18 18
        </DataArray>
      </CellData>
    </Piece>
  </PolyData>
</VTKFile>
