<?xml version="1.0"?>
<VTKFile type="PolyData" version="0.1" byte_order="LittleEndian">
  <PolyData>
    <Piece NumberOfPoints="16" NumberOfPolys="14">
      <Points>
        <DataArray type="Float32" NumberOfComponents="3" format="ascii">
          0 0 0  1 0 0  2 0 0  3 0 0
          0 1 0  1 1 0  2 1 0  3 1 0
          0 2 0  1 2 0  2 2 0  3 2 0
          0 3 0  1 3 0  2 3 0  3 3 0
        </DataArray>
      </Points>
      <Polys>
        <DataArray type="Int32" Name="connectivity" format="ascii">
          0 1 5 4
          1 2 6 5
          2 3 7 6
          4 5 9 8
          5 6 10 9
          6 7 11 10
          8 9 13 12
          9 10 14 13
          10 11 15 14
          0 4 8
          1 5 9
          2 6 10
          3 7 11
          4 8 12
        </DataArray>
        <DataArray type="Int32" Name="offsets" format="ascii">
          4 8 12 16 20 24 28 32 36 39 42 45 48 51
        </DataArray>
      </Polys>
      <CellData Scalars="ContactSurfaceId">
        <DataArray type="Int32" Name="ContactSurfaceId" format="ascii">
          1 1 0 2 2 0 3 3 0 4 4 0 0 0
        </DataArray>
        <DataArray type="Int32" Name="MaterialIds" format="ascii">
          1 1 1 1 1 1 2 2 2 1 1 1 2 2
        </DataArray>
      </CellData>
    </Piece>
  </PolyData>
</VTKFile>
