<?xml version="1.0"?>
<VTKFile type="PolyData" version="0.1" byte_order="LittleEndian">
  <PolyData>
    <Piece NumberOfPoints="16" NumberOfPolys="10">
      <Points>
        <DataArray type="Float32" NumberOfComponents="3" format="ascii">
          0.0 0.0 0.0  1.0 0.0 0.0  1.0 1.0 0.0  0.0 1.0 0.0
          0.0 0.0 1.0  1.0 0.0 1.0  1.0 1.0 1.0  0.0 1.0 1.0
          1.05 0.0 0.0  2.05 0.0 0.0  2.05 1.0 0.0  1.05 1.0 0.0
          1.05 0.0 1.0  2.05 0.0 1.0  2.05 1.0 1.0  1.05 1.0 1.0
        </DataArray>
      </Points>
      <Polys>
        <DataArray type="Int32" Name="connectivity" format="ascii">
          0 1 2 3
          4 7 6 5
          0 4 7 3
          0 1 5 4
          3 2 6 7
          8 9 10 11
          12 15 14 13
          8 11 15 12
          8 9 13 12
          11 10 14 15
        </DataArray>
        <DataArray type="Int32" Name="offsets" format="ascii">
          4 8 12 16 20 24 28 32 36 40
        </DataArray>
      </Polys>
      <CellData Scalars="MaterialIds">
        <DataArray type="Int32" Name="MaterialIds" format="ascii">
          1 1 1 1 1
          2 2 2 2 2
        </DataArray>
      </CellData>
    </Piece>
  </PolyData>
</VTKFile>
