<?xml version="1.0"?>
<VTKFile type="PolyData" version="0.1" byte_order="LittleEndian">
  <PolyData>
    <Piece NumberOfPoints="24" NumberOfVerts="0" NumberOfLines="0" NumberOfStrips="0" NumberOfPolys="18">
      <Points>
        <DataArray type="Float32" NumberOfComponents="3" format="ascii">
          -1.5 -0.5 -0.5
          -0.5 -0.5 -0.5
          -0.5 0.5 -0.5
          -1.5 0.5 -0.5
          -1.5 -0.5 0.5
          -0.5 -0.5 0.5
          -0.5 0.5 0.5
          -1.5 0.5 0.5
          -0.25 -0.5 -0.5
          0.25 -0.5 -0.5
          0.25 0.5 -0.5
          -0.25 0.5 -0.5
          -0.25 -0.5 0.5
          0.25 -0.5 0.5
          0.25 0.5 0.5
          -0.25 0.5 0.5
          0.5 -0.5 -0.5
          1.5 -0.5 -0.5
          1.5 0.5 -0.5
          0.5 0.5 -0.5
          0.5 -0.5 0.5
          1.5 -0.5 0.5
          1.5 0.5 0.5
          0.5 0.5 0.5
        </DataArray>
      </Points>
      <Polys>
        <DataArray type="Int32" Name="connectivity" format="ascii">
          0 1 2 3
          4 5 6 7
          0 1 5 4
          1 2 6 5
          2 3 7 6
          3 0 4 7
          8 9 10 11
          12 13 14 15
          8 9 13 12
          9 10 14 13
          10 11 15 14
          11 8 12 15
          16 17 18 19
          20 21 22 23
          16 17 21 20
          17 18 22 21
          18 19 23 22
          19 16 20 23
        </DataArray>
        <DataArray type="Int32" Name="offsets" format="ascii">
          4 8 12 16 20 24 28 32 36 40 44 48 52 56 60 64 68 72
        </DataArray>
      </Polys>
      <CellData Scalars="MaterialIds">
        <DataArray type="Int32" Name="MaterialIds" format="ascii">
          1 1 1 1 1 1
          2 2 2 2 2 2
          3 3 3 3 3 3
        </DataArray>
      </CellData>
    </Piece>
  </PolyData>
</VTKFile>
