<?xml version="1.0"?>
<VTKFile type="PolyData" version="0.1" byte_order="LittleEndian">
  <PolyData>
    <Piece NumberOfPoints="24" NumberOfVerts="0" NumberOfLines="0" NumberOfStrips="0" NumberOfPolys="12">
      <Points>
        <DataArray type="Float32" NumberOfComponents="3" format="ascii">
          0 0 0   1 0 0   1 1 0   0 1 0
          0 0 1   1 0 1   1 1 1   0 1 1
          1.2 0 0   2.2 0 0   2.2 1 0   1.2 1 0
          1.2 0 1   2.2 0 1   2.2 1 1   1.2 1 1
          2.4 0 0   3.4 0 0   3.4 1 0   2.4 1 0
          2.4 0 1   3.4 0 1   3.4 1 1   2.4 1 1
        </DataArray>
      </Points>
      <Polys>
        <DataArray type="Int32" Name="connectivity" format="ascii">
          0 1 2  0 2 3
          4 7 6  4 6 5
          0 3 7  0 7 4
          1 5 6  1 6 2
          8 9 10  8 10 11
          12 15 14  12 14 13
          8 11 15  8 15 12
          9 13 14  9 14 10
          16 17 18  16 18 19
          20 23 22  20 22 21
          16 19 23  16 23 20
          17 21 22  17 22 18
        </DataArray>
        <DataArray type="Int32" Name="offsets" format="ascii">
          3 6 9 12 15 18 21 24 27 30 33 36
        </DataArray>
      </Polys>
      <CellData Scalars="MaterialIds">
        <DataArray type="Int32" Name="MaterialIds" format="ascii">
          1 1 1 1
          2 2 2 2
          3 3 3 3
        </DataArray>
      </CellData>
    </Piece>
  </PolyData>
</VTKFile>
